<?xml version="1.0" encoding="UTF-8"?>

<!-- generated on 2024-02-06 01:08:15 by Eclipse SUMO GUI Version 1.19.0
<configuration xmlns:xsi="http://www.w3.org/2001/XMLSchema-instance" xsi:noNamespaceSchemaLocation="http://sumo.dlr.de/xsd/sumoConfiguration.xsd">

    <input>
        <net-file value="./data/interseccion.net.xml"/>
        <route-files value="./data/routes.rou.xml"/>
    </input>

    <output>
        <tripinfo-output value="tripinfo.xml"/>
    </output>

    <traci_server>
        <remote-port value="36439"/>
    </traci_server>

</configuration>
-->

<tripinfos xmlns:xsi="http://www.w3.org/2001/XMLSchema-instance" xsi:noNamespaceSchemaLocation="http://sumo.dlr.de/xsd/tripinfo_file.xsd">
    <tripinfo id="2" depart="4.00" departLane="EB_0" departPos="5.10" departSpeed="0.00" departDelay="0.00" arrival="37.00" arrivalLane="-ET_0" arrivalPos="189.60" arrivalSpeed="14.01" duration="33.00" routeLength="394.90" waitingTime="0.00" waitingCount="0" stopTime="0.00" timeLoss="4.31" rerouteNo="0" devices="tripinfo_2" vType="DEFAULT_VEHTYPE" speedFactor="1.01" vaporized=""/>
    <tripinfo id="0" depart="1.00" departLane="ET_0" departPos="5.10" departSpeed="0.00" departDelay="0.00" arrival="41.00" arrivalLane="-ER_1" arrivalPos="189.60" arrivalSpeed="14.31" duration="40.00" routeLength="393.45" waitingTime="3.00" waitingCount="1" stopTime="0.00" timeLoss="11.83" rerouteNo="0" devices="tripinfo_0" vType="DEFAULT_VEHTYPE" speedFactor="1.06" vaporized=""/>
    <tripinfo id="6" depart="14.00" departLane="EB_0" departPos="5.10" departSpeed="0.00" departDelay="0.00" arrival="47.00" arrivalLane="-ER_0" arrivalPos="189.60" arrivalSpeed="13.71" duration="33.00" routeLength="383.13" waitingTime="0.00" waitingCount="0" stopTime="0.00" timeLoss="5.43" rerouteNo="0" devices="tripinfo_6" vType="DEFAULT_VEHTYPE" speedFactor="1.05" vaporized=""/>
    <tripinfo id="7" depart="17.00" departLane="EB_0" departPos="5.10" departSpeed="0.00" departDelay="2.50" arrival="55.00" arrivalLane="-EL_1" arrivalPos="189.60" arrivalSpeed="11.45" duration="38.00" routeLength="393.45" waitingTime="0.00" waitingCount="0" stopTime="0.00" timeLoss="5.13" rerouteNo="0" devices="tripinfo_7" vType="DEFAULT_VEHTYPE" speedFactor="0.89" vaporized=""/>
    <tripinfo id="3" depart="6.00" departLane="EL_0" departPos="5.10" departSpeed="0.00" departDelay="0.00" arrival="63.00" arrivalLane="-ET_1" arrivalPos="189.60" arrivalSpeed="14.15" duration="57.00" routeLength="393.45" waitingTime="18.00" waitingCount="1" stopTime="0.00" timeLoss="29.36" rerouteNo="0" devices="tripinfo_3" vType="DEFAULT_VEHTYPE" speedFactor="1.08" vaporized=""/>
    <tripinfo id="1" depart="3.00" departLane="ER_0" departPos="5.10" departSpeed="0.00" departDelay="0.50" arrival="64.00" arrivalLane="-EB_1" arrivalPos="189.60" arrivalSpeed="12.75" duration="61.00" routeLength="393.45" waitingTime="21.00" waitingCount="1" stopTime="0.00" timeLoss="29.80" rerouteNo="0" devices="tripinfo_1" vType="DEFAULT_VEHTYPE" speedFactor="0.94" vaporized=""/>
    <tripinfo id="4" depart="10.00" departLane="ER_0" departPos="5.10" departSpeed="0.00" departDelay="0.00" arrival="66.00" arrivalLane="-EB_1" arrivalPos="189.60" arrivalSpeed="13.07" duration="56.00" routeLength="393.45" waitingTime="16.00" waitingCount="1" stopTime="0.00" timeLoss="27.04" rerouteNo="0" devices="tripinfo_4" vType="DEFAULT_VEHTYPE" speedFactor="1.03" vaporized=""/>
    <tripinfo id="16" depart="38.00" departLane="ER_0" departPos="5.10" departSpeed="0.00" departDelay="0.00" arrival="70.00" arrivalLane="-ET_0" arrivalPos="189.60" arrivalSpeed="14.58" duration="32.00" routeLength="383.13" waitingTime="0.00" waitingCount="0" stopTime="0.00" timeLoss="6.33" rerouteNo="0" devices="tripinfo_16" vType="DEFAULT_VEHTYPE" speedFactor="1.12" vaporized=""/>
    <tripinfo id="5" depart="13.00" departLane="ER_0" departPos="5.10" departSpeed="0.00" departDelay="1.50" arrival="72.00" arrivalLane="-EB_1" arrivalPos="189.60" arrivalSpeed="11.30" duration="59.00" routeLength="393.45" waitingTime="13.00" waitingCount="1" stopTime="0.00" timeLoss="23.47" rerouteNo="0" devices="tripinfo_5" vType="DEFAULT_VEHTYPE" speedFactor="0.83" vaporized=""/>
    <tripinfo id="22" depart="50.00" departLane="ER_0" departPos="5.10" departSpeed="0.00" departDelay="0.50" arrival="85.00" arrivalLane="-EL_0" arrivalPos="189.60" arrivalSpeed="12.95" duration="35.00" routeLength="394.90" waitingTime="0.00" waitingCount="0" stopTime="0.00" timeLoss="4.13" rerouteNo="0" devices="tripinfo_22" vType="DEFAULT_VEHTYPE" speedFactor="0.94" vaporized=""/>
    <tripinfo id="24" depart="52.00" departLane="EL_0" departPos="5.10" departSpeed="0.00" departDelay="0.50" arrival="87.00" arrivalLane="-ET_1" arrivalPos="189.60" arrivalSpeed="13.31" duration="35.00" routeLength="393.45" waitingTime="0.00" waitingCount="0" stopTime="0.00" timeLoss="6.16" rerouteNo="0" devices="tripinfo_24" vType="DEFAULT_VEHTYPE" speedFactor="1.02" vaporized=""/>
    <tripinfo id="26" depart="57.00" departLane="EL_0" departPos="5.10" departSpeed="0.00" departDelay="0.50" arrival="92.00" arrivalLane="-EB_0" arrivalPos="189.60" arrivalSpeed="13.22" duration="35.00" routeLength="383.13" waitingTime="0.00" waitingCount="0" stopTime="0.00" timeLoss="6.18" rerouteNo="0" devices="tripinfo_26" vType="DEFAULT_VEHTYPE" speedFactor="0.97" vaporized=""/>
    <tripinfo id="29" depart="63.00" departLane="EL_0" departPos="5.10" departSpeed="0.00" departDelay="3.00" arrival="100.00" arrivalLane="-ER_0" arrivalPos="189.60" arrivalSpeed="10.86" duration="37.00" routeLength="394.90" waitingTime="0.00" waitingCount="0" stopTime="0.00" timeLoss="4.23" rerouteNo="0" devices="tripinfo_29" vType="DEFAULT_VEHTYPE" speedFactor="0.87" vaporized=""/>
    <tripinfo id="31" depart="65.00" departLane="ER_0" departPos="5.10" departSpeed="0.00" departDelay="0.50" arrival="100.00" arrivalLane="-EL_0" arrivalPos="189.60" arrivalSpeed="12.03" duration="35.00" routeLength="394.90" waitingTime="0.00" waitingCount="0" stopTime="0.00" timeLoss="4.00" rerouteNo="0" devices="tripinfo_31" vType="DEFAULT_VEHTYPE" speedFactor="0.92" vaporized=""/>
    <tripinfo id="32" depart="68.00" departLane="ER_0" departPos="5.10" departSpeed="0.00" departDelay="2.00" arrival="105.00" arrivalLane="-EB_1" arrivalPos="189.60" arrivalSpeed="12.67" duration="37.00" routeLength="393.45" waitingTime="0.00" waitingCount="0" stopTime="0.00" timeLoss="5.30" rerouteNo="0" devices="tripinfo_32" vType="DEFAULT_VEHTYPE" speedFactor="0.95" vaporized=""/>
    <tripinfo id="28" depart="60.00" departLane="EL_0" departPos="5.10" departSpeed="0.00" departDelay="2.50" arrival="106.00" arrivalLane="-ET_1" arrivalPos="189.60" arrivalSpeed="10.34" duration="46.00" routeLength="393.45" waitingTime="1.00" waitingCount="1" stopTime="0.00" timeLoss="10.08" rerouteNo="0" devices="tripinfo_28" vType="DEFAULT_VEHTYPE" speedFactor="0.83" vaporized=""/>
    <tripinfo id="9" depart="27.00" departLane="ET_0" departPos="5.10" departSpeed="0.00" departDelay="0.50" arrival="109.00" arrivalLane="-EL_0" arrivalPos="189.60" arrivalSpeed="12.21" duration="82.00" routeLength="383.13" waitingTime="41.00" waitingCount="1" stopTime="0.00" timeLoss="51.17" rerouteNo="0" devices="tripinfo_9" vType="DEFAULT_VEHTYPE" speedFactor="0.94" vaporized=""/>
    <tripinfo id="17" depart="39.00" departLane="EB_0" departPos="5.10" departSpeed="0.00" departDelay="0.50" arrival="109.00" arrivalLane="-ET_0" arrivalPos="189.60" arrivalSpeed="13.09" duration="70.00" routeLength="394.90" waitingTime="32.00" waitingCount="1" stopTime="0.00" timeLoss="40.54" rerouteNo="0" devices="tripinfo_17" vType="DEFAULT_VEHTYPE" speedFactor="0.99" vaporized=""/>
    <tripinfo id="21" depart="47.00" departLane="ET_0" departPos="5.10" departSpeed="0.00" departDelay="0.50" arrival="111.00" arrivalLane="-EL_0" arrivalPos="189.60" arrivalSpeed="12.70" duration="64.00" routeLength="383.13" waitingTime="23.00" waitingCount="1" stopTime="0.00" timeLoss="33.45" rerouteNo="0" devices="tripinfo_21" vType="DEFAULT_VEHTYPE" speedFactor="0.94" vaporized=""/>
    <tripinfo id="23" depart="51.00" departLane="EB_0" departPos="5.10" departSpeed="0.00" departDelay="0.50" arrival="111.00" arrivalLane="-ET_0" arrivalPos="189.60" arrivalSpeed="15.09" duration="60.00" routeLength="394.90" waitingTime="23.00" waitingCount="1" stopTime="0.00" timeLoss="35.35" rerouteNo="0" devices="tripinfo_23" vType="DEFAULT_VEHTYPE" speedFactor="1.16" vaporized=""/>
    <tripinfo id="18" depart="42.00" departLane="EB_0" departPos="5.10" departSpeed="0.00" departDelay="3.00" arrival="112.00" arrivalLane="-ER_0" arrivalPos="189.60" arrivalSpeed="12.69" duration="70.00" routeLength="383.13" waitingTime="29.00" waitingCount="1" stopTime="0.00" timeLoss="38.86" rerouteNo="0" devices="tripinfo_18" vType="DEFAULT_VEHTYPE" speedFactor="0.93" vaporized=""/>
    <tripinfo id="25" depart="56.00" departLane="ET_0" departPos="5.10" departSpeed="0.00" departDelay="0.00" arrival="112.00" arrivalLane="-EB_0" arrivalPos="189.60" arrivalSpeed="13.41" duration="56.00" routeLength="394.90" waitingTime="16.00" waitingCount="1" stopTime="0.00" timeLoss="27.43" rerouteNo="0" devices="tripinfo_25" vType="DEFAULT_VEHTYPE" speedFactor="1.01" vaporized=""/>
    <tripinfo id="35" depart="71.00" departLane="ET_0" departPos="5.10" departSpeed="0.00" departDelay="0.50" arrival="113.00" arrivalLane="-EL_0" arrivalPos="189.60" arrivalSpeed="15.72" duration="42.00" routeLength="383.13" waitingTime="4.00" waitingCount="1" stopTime="0.00" timeLoss="17.47" rerouteNo="0" devices="tripinfo_35" vType="DEFAULT_VEHTYPE" speedFactor="1.18" vaporized=""/>
    <tripinfo id="36" depart="74.00" departLane="ET_0" departPos="5.10" departSpeed="0.00" departDelay="3.50" arrival="115.00" arrivalLane="-EL_0" arrivalPos="189.60" arrivalSpeed="15.38" duration="41.00" routeLength="383.13" waitingTime="3.00" waitingCount="1" stopTime="0.00" timeLoss="15.74" rerouteNo="0" devices="tripinfo_36" vType="DEFAULT_VEHTYPE" speedFactor="1.15" vaporized=""/>
    <tripinfo id="27" depart="58.00" departLane="EB_0" departPos="5.10" departSpeed="0.00" departDelay="0.50" arrival="117.00" arrivalLane="-ET_0" arrivalPos="189.60" arrivalSpeed="11.79" duration="59.00" routeLength="394.90" waitingTime="17.00" waitingCount="1" stopTime="0.00" timeLoss="26.60" rerouteNo="0" devices="tripinfo_27" vType="DEFAULT_VEHTYPE" speedFactor="0.89" vaporized=""/>
    <tripinfo id="12" depart="32.00" departLane="ET_0" departPos="5.10" departSpeed="0.00" departDelay="0.50" arrival="118.00" arrivalLane="-ER_1" arrivalPos="189.60" arrivalSpeed="14.97" duration="86.00" routeLength="393.45" waitingTime="48.00" waitingCount="2" stopTime="0.00" timeLoss="58.76" rerouteNo="0" devices="tripinfo_12" vType="DEFAULT_VEHTYPE" speedFactor="1.09" vaporized=""/>
    <tripinfo id="44" depart="87.00" departLane="ET_0" departPos="5.10" departSpeed="0.00" departDelay="0.50" arrival="118.00" arrivalLane="-EB_0" arrivalPos="189.60" arrivalSpeed="14.65" duration="31.00" routeLength="394.90" waitingTime="0.00" waitingCount="0" stopTime="0.00" timeLoss="4.66" rerouteNo="0" devices="tripinfo_44" vType="DEFAULT_VEHTYPE" speedFactor="1.10" vaporized=""/>
    <tripinfo id="10" depart="27.00" departLane="EB_0" departPos="5.10" departSpeed="0.00" departDelay="0.00" arrival="119.00" arrivalLane="-EL_1" arrivalPos="189.60" arrivalSpeed="11.51" duration="92.00" routeLength="393.45" waitingTime="48.00" waitingCount="2" stopTime="0.00" timeLoss="58.13" rerouteNo="0" devices="tripinfo_10" vType="DEFAULT_VEHTYPE" speedFactor="0.86" vaporized=""/>
    <tripinfo id="15" depart="37.00" departLane="ET_0" departPos="5.10" departSpeed="0.00" departDelay="0.00" arrival="121.00" arrivalLane="-ER_1" arrivalPos="189.60" arrivalSpeed="13.51" duration="84.00" routeLength="393.45" waitingTime="43.00" waitingCount="2" stopTime="0.00" timeLoss="55.71" rerouteNo="0" devices="tripinfo_15" vType="DEFAULT_VEHTYPE" speedFactor="1.05" vaporized=""/>
    <tripinfo id="38" depart="77.00" departLane="ET_0" departPos="5.10" departSpeed="0.00" departDelay="0.00" arrival="121.00" arrivalLane="-EB_0" arrivalPos="189.60" arrivalSpeed="16.11" duration="44.00" routeLength="394.90" waitingTime="6.00" waitingCount="1" stopTime="0.00" timeLoss="18.90" rerouteNo="0" devices="tripinfo_38" vType="DEFAULT_VEHTYPE" speedFactor="1.17" vaporized=""/>
    <tripinfo id="39" depart="80.00" departLane="ET_0" departPos="5.10" departSpeed="0.00" departDelay="3.00" arrival="124.00" arrivalLane="-EB_0" arrivalPos="189.60" arrivalSpeed="12.72" duration="44.00" routeLength="394.90" waitingTime="4.00" waitingCount="1" stopTime="0.00" timeLoss="15.09" rerouteNo="0" devices="tripinfo_39" vType="DEFAULT_VEHTYPE" speedFactor="0.99" vaporized=""/>
    <tripinfo id="47" depart="94.00" departLane="EB_0" departPos="5.10" departSpeed="0.00" departDelay="0.00" arrival="126.00" arrivalLane="-ET_0" arrivalPos="189.60" arrivalSpeed="14.10" duration="32.00" routeLength="394.90" waitingTime="0.00" waitingCount="0" stopTime="0.00" timeLoss="3.99" rerouteNo="0" devices="tripinfo_47" vType="DEFAULT_VEHTYPE" speedFactor="1.03" vaporized=""/>
    <tripinfo id="13" depart="33.00" departLane="EB_0" departPos="5.10" departSpeed="0.00" departDelay="0.00" arrival="127.00" arrivalLane="-EL_1" arrivalPos="189.60" arrivalSpeed="13.39" duration="94.00" routeLength="393.45" waitingTime="48.00" waitingCount="3" stopTime="0.00" timeLoss="65.74" rerouteNo="0" devices="tripinfo_13" vType="DEFAULT_VEHTYPE" speedFactor="1.03" vaporized=""/>
    <tripinfo id="45" depart="90.00" departLane="ET_0" departPos="5.10" departSpeed="0.00" departDelay="2.50" arrival="129.00" arrivalLane="-EL_0" arrivalPos="189.60" arrivalSpeed="12.48" duration="39.00" routeLength="383.13" waitingTime="0.00" waitingCount="0" stopTime="0.00" timeLoss="6.73" rerouteNo="0" devices="tripinfo_45" vType="DEFAULT_VEHTYPE" speedFactor="0.90" vaporized=""/>
    <tripinfo id="20" depart="45.00" departLane="EB_0" departPos="5.10" departSpeed="0.00" departDelay="1.50" arrival="132.00" arrivalLane="-EL_1" arrivalPos="189.60" arrivalSpeed="12.12" duration="87.00" routeLength="393.45" waitingTime="34.00" waitingCount="3" stopTime="0.00" timeLoss="53.90" rerouteNo="0" devices="tripinfo_20" vType="DEFAULT_VEHTYPE" speedFactor="0.88" vaporized=""/>
    <tripinfo id="40" depart="79.00" departLane="EB_0" departPos="5.10" departSpeed="0.00" departDelay="0.00" arrival="134.00" arrivalLane="-EL_1" arrivalPos="189.60" arrivalSpeed="14.13" duration="55.00" routeLength="393.45" waitingTime="7.00" waitingCount="2" stopTime="0.00" timeLoss="26.12" rerouteNo="0" devices="tripinfo_40" vType="DEFAULT_VEHTYPE" speedFactor="1.02" vaporized=""/>
    <tripinfo id="49" depart="103.00" departLane="ET_0" departPos="5.10" departSpeed="0.00" departDelay="0.50" arrival="136.00" arrivalLane="-EL_0" arrivalPos="189.60" arrivalSpeed="15.15" duration="33.00" routeLength="383.13" waitingTime="0.00" waitingCount="0" stopTime="0.00" timeLoss="6.91" rerouteNo="0" devices="tripinfo_49" vType="DEFAULT_VEHTYPE" speedFactor="1.09" vaporized=""/>
    <tripinfo id="48" depart="101.00" departLane="EB_0" departPos="5.10" departSpeed="0.00" departDelay="0.00" arrival="137.00" arrivalLane="-ER_0" arrivalPos="189.60" arrivalSpeed="12.93" duration="36.00" routeLength="383.13" waitingTime="0.00" waitingCount="0" stopTime="0.00" timeLoss="5.80" rerouteNo="0" devices="tripinfo_48" vType="DEFAULT_VEHTYPE" speedFactor="0.96" vaporized=""/>
    <tripinfo id="51" depart="106.00" departLane="ET_0" departPos="5.10" departSpeed="0.00" departDelay="0.50" arrival="139.00" arrivalLane="-EB_0" arrivalPos="189.60" arrivalSpeed="14.20" duration="33.00" routeLength="394.90" waitingTime="0.00" waitingCount="0" stopTime="0.00" timeLoss="4.96" rerouteNo="0" devices="tripinfo_51" vType="DEFAULT_VEHTYPE" speedFactor="1.04" vaporized=""/>
    <tripinfo id="55" depart="112.00" departLane="ET_0" departPos="5.10" departSpeed="0.00" departDelay="0.50" arrival="143.00" arrivalLane="-EB_0" arrivalPos="189.60" arrivalSpeed="14.06" duration="31.00" routeLength="394.90" waitingTime="0.00" waitingCount="0" stopTime="0.00" timeLoss="4.62" rerouteNo="0" devices="tripinfo_55" vType="DEFAULT_VEHTYPE" speedFactor="1.09" vaporized=""/>
    <tripinfo id="50" depart="105.00" departLane="EB_0" departPos="5.10" departSpeed="0.00" departDelay="0.00" arrival="149.00" arrivalLane="-EL_1" arrivalPos="189.60" arrivalSpeed="13.60" duration="44.00" routeLength="393.45" waitingTime="5.00" waitingCount="1" stopTime="0.00" timeLoss="15.00" rerouteNo="0" devices="tripinfo_50" vType="DEFAULT_VEHTYPE" speedFactor="1.04" vaporized=""/>
    <tripinfo id="33" depart="71.00" departLane="ER_0" departPos="5.10" departSpeed="0.00" departDelay="3.00" arrival="152.00" arrivalLane="-EB_1" arrivalPos="189.60" arrivalSpeed="14.76" duration="81.00" routeLength="393.45" waitingTime="43.00" waitingCount="1" stopTime="0.00" timeLoss="54.85" rerouteNo="0" devices="tripinfo_33" vType="DEFAULT_VEHTYPE" speedFactor="1.13" vaporized=""/>
    <tripinfo id="37" depart="77.00" departLane="EL_0" departPos="5.10" departSpeed="0.00" departDelay="0.50" arrival="152.00" arrivalLane="-EB_0" arrivalPos="189.60" arrivalSpeed="13.70" duration="75.00" routeLength="383.13" waitingTime="37.00" waitingCount="1" stopTime="0.00" timeLoss="46.97" rerouteNo="0" devices="tripinfo_37" vType="DEFAULT_VEHTYPE" speedFactor="1.01" vaporized=""/>
    <tripinfo id="34" depart="68.00" departLane="EL_0" departPos="5.10" departSpeed="0.00" departDelay="0.00" arrival="155.00" arrivalLane="-ET_1" arrivalPos="189.60" arrivalSpeed="12.05" duration="87.00" routeLength="393.45" waitingTime="46.00" waitingCount="1" stopTime="0.00" timeLoss="55.14" rerouteNo="0" devices="tripinfo_34" vType="DEFAULT_VEHTYPE" speedFactor="0.93" vaporized=""/>
    <tripinfo id="41" depart="80.00" departLane="EL_0" departPos="5.10" departSpeed="0.00" departDelay="1.00" arrival="156.00" arrivalLane="-EB_0" arrivalPos="189.60" arrivalSpeed="12.41" duration="76.00" routeLength="383.13" waitingTime="35.00" waitingCount="1" stopTime="0.00" timeLoss="45.86" rerouteNo="0" devices="tripinfo_41" vType="DEFAULT_VEHTYPE" speedFactor="0.97" vaporized=""/>
    <tripinfo id="42" depart="83.00" departLane="EL_0" departPos="5.10" departSpeed="0.00" departDelay="0.00" arrival="156.00" arrivalLane="-ET_1" arrivalPos="189.60" arrivalSpeed="14.76" duration="73.00" routeLength="393.45" waitingTime="35.00" waitingCount="1" stopTime="0.00" timeLoss="48.22" rerouteNo="0" devices="tripinfo_42" vType="DEFAULT_VEHTYPE" speedFactor="1.18" vaporized=""/>
    <tripinfo id="58" depart="120.00" departLane="EL_0" departPos="5.10" departSpeed="0.00" departDelay="0.00" arrival="159.00" arrivalLane="-ER_0" arrivalPos="189.60" arrivalSpeed="11.74" duration="39.00" routeLength="394.90" waitingTime="0.00" waitingCount="0" stopTime="0.00" timeLoss="6.61" rerouteNo="0" devices="tripinfo_58" vType="DEFAULT_VEHTYPE" speedFactor="0.90" vaporized=""/>
    <tripinfo id="60" depart="127.00" departLane="ER_0" departPos="5.10" departSpeed="0.00" departDelay="0.00" arrival="167.00" arrivalLane="-ET_0" arrivalPos="189.60" arrivalSpeed="10.74" duration="40.00" routeLength="383.13" waitingTime="0.00" waitingCount="0" stopTime="0.00" timeLoss="6.14" rerouteNo="0" devices="tripinfo_60" vType="DEFAULT_VEHTYPE" speedFactor="0.85" vaporized=""/>
    <tripinfo id="67" depart="144.00" departLane="EL_0" departPos="5.10" departSpeed="0.00" departDelay="0.00" arrival="178.00" arrivalLane="-ER_0" arrivalPos="189.60" arrivalSpeed="13.42" duration="34.00" routeLength="394.90" waitingTime="0.00" waitingCount="0" stopTime="0.00" timeLoss="4.73" rerouteNo="0" devices="tripinfo_67" vType="DEFAULT_VEHTYPE" speedFactor="1.00" vaporized=""/>
    <tripinfo id="71" depart="153.00" departLane="EL_0" departPos="5.10" departSpeed="0.00" departDelay="0.50" arrival="185.00" arrivalLane="-EB_0" arrivalPos="189.60" arrivalSpeed="15.76" duration="32.00" routeLength="383.13" waitingTime="0.00" waitingCount="0" stopTime="0.00" timeLoss="6.53" rerouteNo="0" devices="tripinfo_71" vType="DEFAULT_VEHTYPE" speedFactor="1.14" vaporized=""/>
    <tripinfo id="73" depart="155.00" departLane="ER_0" departPos="5.10" departSpeed="0.00" departDelay="0.50" arrival="188.00" arrivalLane="-EL_0" arrivalPos="189.60" arrivalSpeed="13.29" duration="33.00" routeLength="394.90" waitingTime="0.00" waitingCount="0" stopTime="0.00" timeLoss="4.69" rerouteNo="0" devices="tripinfo_73" vType="DEFAULT_VEHTYPE" speedFactor="1.02" vaporized=""/>
    <tripinfo id="56" depart="116.00" departLane="EB_0" departPos="5.10" departSpeed="0.00" departDelay="0.50" arrival="198.00" arrivalLane="-ET_0" arrivalPos="189.60" arrivalSpeed="12.76" duration="82.00" routeLength="394.90" waitingTime="43.00" waitingCount="1" stopTime="0.00" timeLoss="53.41" rerouteNo="0" devices="tripinfo_56" vType="DEFAULT_VEHTYPE" speedFactor="1.00" vaporized=""/>
    <tripinfo id="62" depart="130.00" departLane="EB_0" departPos="5.10" departSpeed="0.00" departDelay="2.50" arrival="198.00" arrivalLane="-ER_0" arrivalPos="189.60" arrivalSpeed="15.25" duration="68.00" routeLength="383.13" waitingTime="31.00" waitingCount="1" stopTime="0.00" timeLoss="43.29" rerouteNo="0" devices="tripinfo_62" vType="DEFAULT_VEHTYPE" speedFactor="1.17" vaporized=""/>
    <tripinfo id="63" depart="130.00" departLane="ET_0" departPos="5.10" departSpeed="0.00" departDelay="0.00" arrival="198.00" arrivalLane="-EB_1" arrivalPos="189.60" arrivalSpeed="12.99" duration="68.00" routeLength="394.90" waitingTime="28.00" waitingCount="1" stopTime="0.00" timeLoss="39.68" rerouteNo="0" devices="tripinfo_63" vType="DEFAULT_VEHTYPE" speedFactor="1.02" vaporized=""/>
    <tripinfo id="59" depart="126.00" departLane="ET_0" departPos="5.10" departSpeed="0.00" departDelay="0.50" arrival="200.00" arrivalLane="-EB_0" arrivalPos="189.60" arrivalSpeed="11.56" duration="74.00" routeLength="394.90" waitingTime="32.00" waitingCount="1" stopTime="0.00" timeLoss="41.29" rerouteNo="0" devices="tripinfo_59" vType="DEFAULT_VEHTYPE" speedFactor="0.88" vaporized=""/>
    <tripinfo id="77" depart="164.00" departLane="ET_0" departPos="5.10" departSpeed="0.00" departDelay="0.50" arrival="200.00" arrivalLane="-EB_1" arrivalPos="189.60" arrivalSpeed="13.13" duration="36.00" routeLength="394.90" waitingTime="0.00" waitingCount="0" stopTime="0.00" timeLoss="7.58" rerouteNo="0" devices="tripinfo_77" vType="DEFAULT_VEHTYPE" speedFactor="1.02" vaporized=""/>
    <tripinfo id="61" depart="127.00" departLane="EB_0" departPos="5.10" departSpeed="0.00" departDelay="0.00" arrival="201.00" arrivalLane="-ET_0" arrivalPos="189.60" arrivalSpeed="10.71" duration="74.00" routeLength="394.90" waitingTime="29.00" waitingCount="1" stopTime="0.00" timeLoss="40.29" rerouteNo="0" devices="tripinfo_61" vType="DEFAULT_VEHTYPE" speedFactor="0.85" vaporized=""/>
    <tripinfo id="65" depart="134.00" departLane="EB_0" departPos="5.10" departSpeed="0.00" departDelay="0.50" arrival="201.00" arrivalLane="-ET_1" arrivalPos="189.60" arrivalSpeed="15.10" duration="67.00" routeLength="394.90" waitingTime="26.00" waitingCount="1" stopTime="0.00" timeLoss="40.09" rerouteNo="0" devices="tripinfo_65" vType="DEFAULT_VEHTYPE" speedFactor="1.10" vaporized=""/>
    <tripinfo id="70" depart="152.00" departLane="ET_0" departPos="5.10" departSpeed="0.00" departDelay="0.50" arrival="201.00" arrivalLane="-EL_0" arrivalPos="189.60" arrivalSpeed="12.12" duration="49.00" routeLength="383.13" waitingTime="8.00" waitingCount="1" stopTime="0.00" timeLoss="17.39" rerouteNo="0" devices="tripinfo_70" vType="DEFAULT_VEHTYPE" speedFactor="0.90" vaporized=""/>
    <tripinfo id="66" depart="138.00" departLane="EB_0" departPos="5.10" departSpeed="0.00" departDelay="0.00" arrival="203.00" arrivalLane="-ET_0" arrivalPos="189.60" arrivalSpeed="13.52" duration="65.00" routeLength="394.90" waitingTime="25.00" waitingCount="1" stopTime="0.00" timeLoss="35.84" rerouteNo="0" devices="tripinfo_66" vType="DEFAULT_VEHTYPE" speedFactor="1.00" vaporized=""/>
    <tripinfo id="75" depart="157.00" departLane="EB_0" departPos="5.10" departSpeed="0.00" departDelay="0.50" arrival="203.00" arrivalLane="-EL_1" arrivalPos="189.60" arrivalSpeed="13.99" duration="46.00" routeLength="393.45" waitingTime="7.00" waitingCount="1" stopTime="0.00" timeLoss="18.33" rerouteNo="0" devices="tripinfo_75" vType="DEFAULT_VEHTYPE" speedFactor="1.08" vaporized=""/>
    <tripinfo id="74" depart="156.00" departLane="ET_0" departPos="5.10" departSpeed="0.00" departDelay="0.00" arrival="204.00" arrivalLane="-EL_0" arrivalPos="189.60" arrivalSpeed="12.23" duration="48.00" routeLength="383.13" waitingTime="8.00" waitingCount="1" stopTime="0.00" timeLoss="18.04" rerouteNo="0" devices="tripinfo_74" vType="DEFAULT_VEHTYPE" speedFactor="0.97" vaporized=""/>
    <tripinfo id="78" depart="167.00" departLane="ET_0" departPos="5.10" departSpeed="0.00" departDelay="3.50" arrival="206.00" arrivalLane="-ER_1" arrivalPos="189.60" arrivalSpeed="13.56" duration="39.00" routeLength="393.45" waitingTime="0.00" waitingCount="0" stopTime="0.00" timeLoss="8.88" rerouteNo="0" devices="tripinfo_78" vType="DEFAULT_VEHTYPE" speedFactor="0.99" vaporized=""/>
    <tripinfo id="79" depart="165.00" departLane="EB_0" departPos="5.10" departSpeed="0.00" departDelay="0.50" arrival="207.00" arrivalLane="-EL_1" arrivalPos="189.60" arrivalSpeed="12.01" duration="42.00" routeLength="393.45" waitingTime="0.00" waitingCount="0" stopTime="0.00" timeLoss="10.85" rerouteNo="0" devices="tripinfo_79" vType="DEFAULT_VEHTYPE" speedFactor="0.94" vaporized=""/>
    <tripinfo id="81" depart="170.00" departLane="ET_0" departPos="5.10" departSpeed="0.00" departDelay="2.00" arrival="208.00" arrivalLane="-EL_0" arrivalPos="189.60" arrivalSpeed="11.36" duration="38.00" routeLength="383.13" waitingTime="0.00" waitingCount="0" stopTime="0.00" timeLoss="6.03" rerouteNo="0" devices="tripinfo_81" vType="DEFAULT_VEHTYPE" speedFactor="0.91" vaporized=""/>
    <tripinfo id="85" depart="173.00" departLane="ET_0" departPos="5.10" departSpeed="0.00" departDelay="0.00" arrival="209.00" arrivalLane="-EL_0" arrivalPos="189.60" arrivalSpeed="13.98" duration="36.00" routeLength="383.13" waitingTime="0.00" waitingCount="0" stopTime="0.00" timeLoss="8.53" rerouteNo="0" devices="tripinfo_85" vType="DEFAULT_VEHTYPE" speedFactor="1.02" vaporized=""/>
    <tripinfo id="86" depart="176.00" departLane="ET_0" departPos="5.10" departSpeed="0.00" departDelay="2.50" arrival="211.00" arrivalLane="-EL_0" arrivalPos="189.60" arrivalSpeed="13.31" duration="35.00" routeLength="383.13" waitingTime="0.00" waitingCount="0" stopTime="0.00" timeLoss="6.08" rerouteNo="0" devices="tripinfo_86" vType="DEFAULT_VEHTYPE" speedFactor="0.97" vaporized=""/>
    <tripinfo id="92" depart="182.00" departLane="ET_0" departPos="5.10" departSpeed="0.00" departDelay="0.50" arrival="218.00" arrivalLane="-ER_1" arrivalPos="189.60" arrivalSpeed="12.79" duration="36.00" routeLength="393.45" waitingTime="0.00" waitingCount="0" stopTime="0.00" timeLoss="5.68" rerouteNo="0" devices="tripinfo_92" vType="DEFAULT_VEHTYPE" speedFactor="0.98" vaporized=""/>
    <tripinfo id="93" depart="185.00" departLane="ET_0" departPos="5.10" departSpeed="0.00" departDelay="0.00" arrival="219.00" arrivalLane="-EL_0" arrivalPos="189.60" arrivalSpeed="13.53" duration="34.00" routeLength="383.13" waitingTime="0.00" waitingCount="0" stopTime="0.00" timeLoss="5.54" rerouteNo="0" devices="tripinfo_93" vType="DEFAULT_VEHTYPE" speedFactor="1.03" vaporized=""/>
    <tripinfo id="76" depart="162.00" departLane="EL_0" departPos="5.10" departSpeed="0.00" departDelay="0.00" arrival="242.00" arrivalLane="-ER_0" arrivalPos="189.60" arrivalSpeed="14.50" duration="80.00" routeLength="394.90" waitingTime="43.00" waitingCount="1" stopTime="0.00" timeLoss="54.37" rerouteNo="0" devices="tripinfo_76" vType="DEFAULT_VEHTYPE" speedFactor="1.12" vaporized=""/>
    <tripinfo id="87" depart="175.00" departLane="EL_0" departPos="5.10" departSpeed="0.00" departDelay="0.50" arrival="244.00" arrivalLane="-ER_0" arrivalPos="189.60" arrivalSpeed="13.05" duration="69.00" routeLength="394.90" waitingTime="29.00" waitingCount="1" stopTime="0.00" timeLoss="38.02" rerouteNo="0" devices="tripinfo_87" vType="DEFAULT_VEHTYPE" speedFactor="0.94" vaporized=""/>
    <tripinfo id="80" depart="165.00" departLane="ER_0" departPos="5.10" departSpeed="0.00" departDelay="0.50" arrival="245.00" arrivalLane="-EL_0" arrivalPos="189.60" arrivalSpeed="11.85" duration="80.00" routeLength="394.90" waitingTime="38.00" waitingCount="1" stopTime="0.00" timeLoss="47.59" rerouteNo="0" devices="tripinfo_80" vType="DEFAULT_VEHTYPE" speedFactor="0.88" vaporized=""/>
    <tripinfo id="83" depart="171.00" departLane="EL_0" departPos="5.10" departSpeed="0.00" departDelay="0.00" arrival="245.00" arrivalLane="-EB_0" arrivalPos="189.60" arrivalSpeed="13.27" duration="74.00" routeLength="383.13" waitingTime="35.00" waitingCount="1" stopTime="0.00" timeLoss="45.94" rerouteNo="0" devices="tripinfo_83" vType="DEFAULT_VEHTYPE" speedFactor="1.04" vaporized=""/>
    <tripinfo id="96" depart="187.00" departLane="EL_0" departPos="5.10" departSpeed="0.00" departDelay="0.50" arrival="245.00" arrivalLane="-ER_1" arrivalPos="189.60" arrivalSpeed="12.79" duration="58.00" routeLength="394.90" waitingTime="19.00" waitingCount="1" stopTime="0.00" timeLoss="28.90" rerouteNo="0" devices="tripinfo_96" vType="DEFAULT_VEHTYPE" speedFactor="0.98" vaporized=""/>
    <tripinfo id="82" depart="170.00" departLane="ER_0" departPos="5.10" departSpeed="0.00" departDelay="0.00" arrival="247.00" arrivalLane="-EL_0" arrivalPos="189.60" arrivalSpeed="12.62" duration="77.00" routeLength="394.90" waitingTime="36.00" waitingCount="1" stopTime="0.00" timeLoss="45.52" rerouteNo="0" devices="tripinfo_82" vType="DEFAULT_VEHTYPE" speedFactor="0.91" vaporized=""/>